iupac,smiles,expt,calc
"1-N,1-N-diethyl-2,6-dinitro-4-(trifluoromethyl)benzene-1,3-diamine",CCN(CC)c1c(cc(c(c1[N+](=O)[O-])N)C(F)(F)F)[N+](=O)[O-],-5.66,-7.503
methylsulfanylmethane,CSC,-1.61,0.44
ketoprofen,C[C@@H](c1cccc(c1)C(=O)c2ccccc2)C(=O)O,-10.78,-17.242
cyclopentanol,C1CCC(C1)O,-5.49,-4.29
methyl pentanoate,CCCCC(=O)OC,-2.56,-3.492
2-methylpent-1-ene,CCCC(=C)C,1.47,2.486
flurbiprofen,C[C@@H](c1ccc(c(c1)F)c2ccccc2)C(=O)O,-8.42,-13.953
nitralin,CCCN(CCC)c1c(cc(cc1[N+](=O)[O-])S(=O)(=O)C)[N+](=O)[O-],-7.98,-11.246
chloroethylene,C=CCl,-0.59,1.162
"N,N-4-trimethylbenzamide",Cc1ccc(cc1)C(=O)N(C)C,-9.76,-8.081
heptan-4-one,CCCC(=O)CCC,-2.92,-2.704
methyl benzoate,COC(=O)c1ccccc1,-3.92,-4.921
4-methylbenzaldehyde,Cc1ccc(cc1)C=O,-4.27,-5.014
propyl butanoate,CCCC(=O)OCCC,-2.28,-2.754
piperazine,C1CNCCN1,-7.4,-8.481
dialifor,CCOP(=S)(OCC)S[C@@H](CCl)N1C(=O)c2ccccc2C1=O,-5.74,-16.515
2-ethoxyethanol,CCOCCO,-6.69,-4.407
3-methylpentane,CCC(C)CC,2.51,2.613
2-methylpyrazine,Cc1cnccn1,-5.51,-6.161
1-nitropropane,CCC[N+](=O)[O-],-3.34,-1.632
mesitylene,Cc1cc(cc(c1)C)C,-0.9,-0.553
5-fluorouracil,c1c(c(=O)[nH]c(=O)[nH]1)F,-16.92,-16.371
ethanol,CCO,-5.0,-3.394
"1,4-dimethylnaphthalene",Cc1ccc(c2c1cccc2)C,-2.82,-3.081
"2,3,7,8-tetrachlorodibenzo-p-dioxin",c1c2c(cc(c1Cl)Cl)Oc3cc(c(cc3O2)Cl)Cl,-3.37,-2.54
dichlobenil,c1cc(c(c(c1)Cl)C#N)Cl,-4.71,-3.32
ethyl formate,CCOC=O,-2.56,-3.867
"1,2,4,5-tetrachlorobenzene",c1c(c(cc(c1Cl)Cl)Cl)Cl,-1.34,0.035
diethoxymethoxybenzene,CCOC(OCC)Oc1ccccc1,-5.23,-5.203
3-nitrophenol,c1cc(cc(c1)O)[N+](=O)[O-],-9.62,-7.889
octan-1-ol,CCCCCCCCO,-4.09,-2.69
but-1-ene,CCC=C,1.38,2.367
carbon tetrachloride,C(Cl)(Cl)(Cl)Cl,0.08,1.185
2-phenylethanol,c1ccc(cc1)CCO,-6.79,-5.28
fenuron,CN(C)C(=O)Nc1ccccc1,-9.13,-11.81
methyldisulfanylmethane,CSSC,-1.83,-0.093
captan,C1C=CC[C@@H]2[C@@H]1C(=O)N(C2=O)SC(Cl)(Cl)Cl,-9.01,-8.718
"2,3-diacetoxypropyl acetate",CC(=O)OCC(COC(=O)C)OC(=O)C,-8.84,-12.333
methoxymethane,COC,-1.91,-0.853
hexane,CCCCCC,2.48,2.851
"1,2-dibromoethane",C(CBr)Br,-2.33,-1.275
"1,1,1,2,2-pentachloroethane",C(C(Cl)(Cl)Cl)(Cl)Cl,-1.23,0.059
5-trifluoromethyluracil,c1c(c(=O)[nH]c(=O)[nH]1)C(F)(F)F,-15.46,-17.349
"2,6-dimethylaniline",Cc1cccc(c1N)C,-5.21,-5.57
propyl acetate,CCCOC(=O)C,-2.79,-3.486
quinoline,c1ccc2c(c1)cccn2,-5.72,-4.989
ethanethiol,CCS,-1.14,-0.395
ethyldisulfanylethane,CCSSCC,-1.64,-0.979
thiophene,c1ccsc1,-1.4,-0.359
1-ethylnaphthalene,CCc1cccc2c1cccc2,-2.4,-2.961
pentan-2-one,CCCC(=O)C,-3.52,-3.166
"1,2,3,4-tetrachloro-5-(2,3,4,6-tetrachlorophenyl)benzene",c1c(c(c(c(c1Cl)Cl)Cl)Cl)c2c(cc(c(c2Cl)Cl)Cl)Cl,-4.61,-0.039
profluralin,CCC[N@@](CC1CC1)c2c(cc(cc2[N+](=O)[O-])C(F)(F)F)[N+](=O)[O-],-2.45,-1.956
acetic acid,CC(=O)O,-6.69,-7.281
acetaldehyde,CC=O,-3.5,-3.372
3-nitroaniline,c1cc(cc(c1)[N+](=O)[O-])N,-8.84,-8.204
hex-1-yne,CCCCC#C,0.29,0.553
2-methoxyaniline,COc1ccccc1N,-6.12,-6.771
phenol,c1ccc(cc1)O,-6.6,-5.707
propanenitrile,CCC#N,-3.84,-2.491
naphthalen-1-ol,c1ccc2c(c1)cccc2O,-7.67,-7.137
butyl acetate,CCCCOC(=O)C,-2.64,-3.406
aldicarb,CC(C)(/C=N\OC(=O)NC)SC,-9.84,-9.679
o-cresol,Cc1ccccc1O,-5.9,-5.076
2-methylpropanal,CC(C)C=O,-2.86,-2.968
propionamide,CCC(=O)N,-9.4,-8.31
1-bromopropane,CCCBr,-0.56,0.579
2-chloropropane,CC(C)Cl,-0.25,0.833
"1,3-dichloropropane",C(CCl)CCl,-1.89,-0.416
4-nitrophenol,c1cc(ccc1[N+](=O)[O-])O,-10.64,-8.472
"1,2-dichloropropane",C[C@@H](CCl)Cl,-1.27,-0.265
4-chloroaniline,c1cc(ccc1N)Cl,-5.9,-5.281
"1-amino-9,10-anthracenedione",c1ccc2c(c1)C(=O)c3cccc(c3C2=O)N,-9.44,-12.214
"2,3-dimethylpyridine",Cc1cccnc1C,-4.82,-3.367
pyridine-4-carbonitrile,c1cnccc1C#N,-6.02,-5.765
diethoxy-(ethylsulfanylmethylsulfanyl)-thioxo-$l^{5}-phosphane,CCOP(=S)(OCC)SCSCC,-4.37,-6.427
1-cyclohexylethanone,CC(=O)C1CCCCC1,-3.9,-4.003
2-methylbenzaldehyde,Cc1ccccc1C=O,-3.93,-4.554
1-(4-pyridyl)ethanone,CC(=O)c1ccncc1,-7.62,-7.566
"1,2,3,4,7,8-hexachlorodibenzo-p-dioxin",c1c2c(cc(c1Cl)Cl)Oc3c(c(c(c(c3Cl)Cl)Cl)Cl)O2,-3.71,-1.878
acetone,CC(=O)C,-3.8,-3.506
2-methylprop-1-ene,CC(=C)C,1.16,2.327
"1,2,3-trichloro-5-(2,5-dichlorophenyl)benzene",c1cc(c(cc1Cl)c2cc(c(c(c2)Cl)Cl)Cl)Cl,-3.61,-0.922
1-nitropentane,CCCCC[N+](=O)[O-],-2.82,-1.325
(2E)-hex-2-enal,CCC/C=C/C=O,-3.68,-3.123
"N,N-dimethyl-4-nitro-benzamide",CN(C)C(=O)c1ccc(cc1)[N+](=O)[O-],-11.95,-10.036
tetrahydrofuran,C1CCOC1,-3.47,-2.201
octane,CCCCCCCC,2.88,3.088
trifluralin,CCCN(CCC)c1c(cc(cc1[N+](=O)[O-])C(F)(F)F)[N+](=O)[O-],-3.25,-2.023
"(3R)-3,7-Dimethylocta-1,6-dien-3-yl acetate",CC(=CCC[C@](C)(C=C)OC(=O)C)C,-2.49,-2.964
"1,3-bis-(nitrooxy)butane",C[C@@H](CCO[N+](=O)[O-])O[N+](=O)[O-],-4.29,-4.944
2-isopropoxypropane,CC(C)OC(C)C,-0.53,-0.178
2-methylhexane,CCCCC(C)C,2.93,2.894
pentachloronitrobenzene,c1(c(c(c(c(c1Cl)Cl)Cl)Cl)Cl)N(=O)=O,-5.22,-1.284
"2-bromo-2-chloro-1,1,1-trifluoro-ethane",[C@@H](C(F)(F)F)(Cl)Br,-0.11,0.206
1-butoxybutane,CCCCOCCCC,-0.83,0.139
pentylcyclopentane,CCCCCC1CCCC1,2.55,2.381
"2,4-dimethylpentane",CC(C)CC(C)C,2.83,2.756
"2,5-dimethylpyridine",Cc1ccc(nc1)C,-4.72,-3.165
but-2-enal,C/C=C/C=O,-4.22,-3.341
3-methylhexane,CCC[C@H](C)CC,2.71,2.81
"1,3,5-trichloro-2-(2,6-dichlorophenyl)benzene",c1cc(c(c(c1)Cl)c2c(cc(cc2Cl)Cl)Cl)Cl,-1.96,-0.477
"1,2,2-trifluoroethoxybenzene",c1ccc(cc1)O[C@@H](C(F)F)F,-1.29,-3.043
"1,2-dimethoxyethane",COCCOC,-4.84,-3.103
sec-butylbenzene,CC[C@H](C)c1ccccc1,-0.45,-0.22
3-phenylpropan-1-ol,c1ccc(cc1)CCCO,-6.92,-5.771
"2-[(1R)-1-methylpropyl]-4,6-dinitro-phenolate",CC[C@@H](C)c1cc(cc(c1O)[N+](=O)[O-])[N+](=O)[O-],-6.23,-5.378
methyl 4-methoxybenzoate,COc1ccc(cc1)C(=O)OC,-5.33,-6.462
"N-(3,4-dichlorophenyl)propanimidic acid",CCC(=O)Nc1ccc(c(c1)Cl)Cl,-7.78,-9.409
naproxen,C[C@@H](c1ccc2cc(ccc2c1)OC)C(=O)O,-10.21,-12.199
octafluorocyclobutane,C1(C(C(C1(F)F)(F)F)(F)F)(F)F,3.43,3.077
isopentyl acetate,CC(C)CCOC(=O)C,-2.21,-3.067
1-chlorohexane,CCCCCCCl,0.0,1.261
4-methylpentan-2-one,CC(C)CC(=O)C,-3.05,-3.116
hexanal,CCCCCC=O,-2.81,-2.86
3-chloroaniline,c1cc(cc(c1)Cl)N,-5.82,-5.138
morpholine,C1COCCN1,-7.17,-6.116
"1,1-diethoxyethane",CCOC(C)OCC,-3.28,-1.795
"N-butyl-N-ethyl-2,6-dinitro-4-(trifluoromethyl)aniline",CCCC[N@](CC)c1c(cc(cc1[N+](=O)[O-])C(F)(F)F)[N+](=O)[O-],-3.51,-2.303
methanethiol,CS,-1.2,-0.273
endosulfan alpha,C1[C@@H]2[C@H](COS(=O)O1)[C@@]3(C(=C([C@]2(C3(Cl)Cl)Cl)Cl)Cl)Cl,-4.23,-9.785
1-(4-methoxyphenyl)ethanone,CC(=O)c1ccc(cc1)OC,-4.4,-6.575
prop-2-en-1-ol,C=CCO,-5.03,-3.286
methylsulfanylethane,CCSC,-1.5,0.386
pentyl acetate,CCCCCOC(=O)C,-2.51,-2.565
"1,2,3,5-tetrachlorobenzene",c1c(cc(c(c1Cl)Cl)Cl)Cl,-1.62,0.136
1-phenylethanone,CC(=O)c1ccccc1,-4.58,-5.078
chloroethane,CCCl,-0.63,0.775
propylcyclopentane,CCCC1CCCC1,2.13,2.102
"1,3,5-trichlorobenzene",c1c(cc(cc1Cl)Cl)Cl,-0.78,0.326
propyl paraben,CCCOC(=O)c1ccc(cc1)O,-9.37,-8.945
3-chlorophenol,c1cc(cc(c1)Cl)O,-6.62,-5.018
3-methylbutan-1-ol,CC(C)CCO,-4.42,-3.237
pentan-1-amine,CCCCCN,-4.09,-2.835
terbacil,Cc1c(c(=O)n(c(=O)[nH]1)C(C)(C)C)Cl,-11.14,-13.769
"2,2,5-trimethylhexane",CC(C)CCC(C)(C)C,2.93,2.97
2-butoxyethanol,CCCCOCCO,-6.25,-3.85
endrin,C1[C@@H]2[C@H]3[C@@H]([C@H]1[C@H]4[C@@H]2O4)[C@@]5(C(=C([C@]3(C5(Cl)Cl)Cl)Cl)Cl)Cl,-4.82,-5.179
benzamide,c1ccc(cc1)C(=O)N,-11.0,-10.412
2-nitropropane,CC(C)[N+](=O)[O-],-3.13,-1.741
glycerol,C(C(CO)O)O,-13.43,-10.14
1-iodopropane,CCCI,-0.53,-0.443
2-methoxyethanamine,COCCN,-6.55,-5.027
"1,1,1,2-tetrachloroethane",C(C(Cl)(Cl)Cl)Cl,-1.43,-0.091
methyl propanoate,CCC(=O)OC,-2.93,-3.652
cyclopentane,C1CCCC1,1.2,1.648
3-ethylpyridine,CCc1cccnc1,-4.59,-2.965
"3,5-dimethylpyridine",Cc1cc(cnc1)C,-4.84,-2.869
2-methoxyethanol,COCCO,-6.619999999999999,-4.686
methyl formate,COC=O,-2.78,-4.028
naphthalen-2-amine,c1ccc2cc(ccc2c1)N,-7.47,-8.003
4-methyl-1H-imidazole,Cc1c[nH]cn1,-10.27,-8.205
1-methyl-3-nitro-benzene,Cc1cccc(c1)[N+](=O)[O-],-3.45,-3.278
"1,4-dichlorobutane",C(CCCl)CCl,-2.32,-0.404
nitroxyacetone,CC(=O)CO[N+](=O)[O-],-5.99,-5.362
tert-butylbenzene,CC(C)(C)c1ccccc1,-0.44,-0.803
methyl hexanoate,CCCCCC(=O)OC,-2.49,-3.299
"1,1,1-trifluoropropan-2-ol",C[C@@H](C(F)(F)F)O,-4.16,-3.518
1-bromo-pentane,CCCCCBr,-0.1,0.824
oct-1-ene,CCCCCCC=C,1.92,2.895
6-isopropyl-3-methyl-1-cyclohex-2-enone,CC1=CC(=O)[C@@H](CC1)C(C)C,-4.51,-3.825
propan-2-ol,CC(C)O,-4.74,-3.427
hexan-1-amine,CCCCCCN,-3.95,-2.772
3-nitrooxypropyl nitrate,C(CO[N+](=O)[O-])CO[N+](=O)[O-],-4.8,-5.322
"2,4-dimethylphenol",Cc1ccc(c(c1)C)O,-6.01,-4.98
pentan-1-ol,CCCCCO,-4.57,-3.054
pentan-2-ol,CCC[C@@H](C)O,-4.39,-2.945
3-methylheptane,CCCC[C@@H](C)CC,2.97,3.03
ibuprofen,C[C@@H](c1ccc(cc1)CC(C)C)C(=O)O,-7.0,-10.857
diethyl (2R)-2-dimethoxyphosphinothioylsulfanylbutanedioate,CCOC(=O)C[C@H](C(=O)OCC)SP(=S)(OC)OC,-8.15,-11.194
"3,4-dimethylphenol",Cc1ccc(cc1C)O,-6.5,-5.471
4-chloro-3-methyl-phenol,Cc1cc(ccc1Cl)O,-6.79,-5.14
hept-2-ene,CCCC/C=C/C,1.68,2.78
1-propoxypropane,CCCOCCC,-1.16,-0.004
"(1R,2S,5R)-2-isopropyl-5-methylcyclohexanol",C[C@@H]1CC[C@H]([C@@H](C1)O)C(C)C,-3.2,-3.35
terbutryn,CCNc1nc(nc(n1)SC)NC(C)(C)C,-6.68,-9.271
"2,2,4-trimethylpentane",CC(C)CC(C)(C)C,2.89,2.542
nonan-5-one,CCCCC(=O)CCCC,-2.64,-2.364
pebulate,CCCCN(CC)C(=O)SCCC,-3.64,-4.573
hept-1-ene,CCCCCC=C,1.66,2.761
isopropyl formate,CC(C)OC=O,-2.02,-3.591
1-acetoxyethyl acetate,CC(OC(=O)C)OC(=O)C,-4.97,-8.006
5-chlorouracil,c1c(c(=O)[nH]c(=O)[nH]1)Cl,-17.74,-16.612
isopropenylbenzene,CC(=C)c1ccccc1,-1.24,-0.651
isopentane,CCC(C)C,2.38,2.59
butyl nitrate,CCCCO[N+](=O)[O-],-2.09,-1.938
bromobenzene,c1ccc(cc1)Br,-1.46,-0.947
"1,1,1-trichloroethane",CC(Cl)(Cl)Cl,-0.19,0.505
4-(1-Methylethenyl)-1-cyclohexene-1-carboxaldehyde,CC(=C)[C@H]1CCC(=CC1)C=O,-4.09,-3.591
1-methyl-2-nitro-benzene,Cc1ccccc1[N+](=O)[O-],-3.58,-3.133
1-iodoheptane,CCCCCCCI,0.27,0.228
pyrene,c1cc2ccc3cccc4c3c2c(c1)cc4,-4.52,-6.79
1-chloro-pentane,CCCCCCl,-0.1,1.084
isobutyl acetate,CC(C)COC(=O)C,-2.36,-2.896
"2,2-dimethylbutane",CCC(C)(C)C,2.51,2.495
4-nitroaniline,c1cc(ccc1N)N(=O)=O,-9.82,-9.416
methyl 2-cyanoacetate,COC(=O)CC#N,-6.72,-6.36
4-methoxyaniline,COc1ccc(cc1)N,-7.48,-7.016
isobutylbenzene,CC(C)Cc1ccccc1,0.16,-0.257
"1,3,5-trichloro-2-phenyl-benzene",c1ccc(cc1)c2c(cc(cc2Cl)Cl)Cl,-2.16,-1.151
methanamine,CN,-4.55,-3.583
2-chlorophenol,c1ccc(c(c1)O)Cl,-4.55,-3.317
"2-amino-9,10-anthraquinone",c1ccc2c(c1)C(=O)c3ccc(cc3C2=O)N,-11.53,-13.895
"(Z)-1,2-dichloroethylene",C(=C\Cl)\Cl,-1.17,1.156
hexan-2-one,CCCCC(=O)C,-3.28,-3.006
"1,2-dinitroxyethane",C(CO[N+](=O)[O-])O[N+](=O)[O-],-5.73,-6.227
2-fluorophenol,c1ccc(c(c1)O)F,-5.29,-3.346
pirimor,Cc1c(nc(nc1OC(=O)N(C)C)N(C)C)C,-9.41,-13.87
styrene,C=Cc1ccccc1,-1.24,-1.078
triethylphosphate,CCOP(=O)(OCC)OCC,-7.5,-10.251
"2,2,2-trifluoroethanol",C(C(F)(F)F)O,-4.31,-3.809
1-butoxy-2-propanol,CCCCOC[C@H](C)O,-5.73,-3.891
propan-1-ol,CCCO,-4.85,-3.33
o-xylene,Cc1ccccc1C,-0.9,-0.851
neopentane,CC(C)(C)C,2.51,2.506
pent-1-yne,CCCC#C,0.01,0.47
phthalimide,c1ccc2c(c1)C(=O)NC2=O,-9.61,-11.825
1-iodobutane,CCCCI,-0.25,-0.223
p-cresol,Cc1ccc(cc1)O,-6.13,-5.579
2-iodopropane,CC(C)I,-0.46,-0.492
2-methoxyphenol,COc1ccccc1O,-5.94,-4.746
cyclopentene,C1CC=CC1,0.56,1.23
111-trifluoropropan-2-ol,C[C@H](C(F)(F)F)O,-4.2,-3.486
propan-1-amine,CCCN,-4.39,-3.053
2-nitrophenol,c1ccc(c(c1)[N+](=O)[O-])O,-4.58,-5.667
1-methylnaphthalene,Cc1cccc2c1cccc2,-2.44,-3.212
hexachlorobenzene,c1(c(c(c(c(c1Cl)Cl)Cl)Cl)Cl)Cl,-2.33,0.379
oct-2-enal,CCCCC/C=C/C=O,-3.43,-2.706
oct-1-yne,CCCCCCC#C,0.71,0.832
diazinon,CCOP(=S)(OCC)Oc1cc(nc(n1)C(C)C)C,-6.48,-10.753
methyl octanoate,CCCCCCCC(=O)OC,-2.04,-3.035
pyrrolidine,C1CCNC1,-5.48,-4.278
4-hydroxybenzaldehyde,c1cc(ccc1C=O)O,-8.83,-10.05
1-chloroheptane,CCCCCCCCl,0.29,1.467
"1,4-dioxane",C1COCCO1,-5.06,-4.269